# LAMMPS data file written by OVITO
128 atoms
1 atom types
-3.3039999 9.9119998 xlo xhi
-3.3039999 9.9119998 ylo yhi
-3.3039999 9.9119998 zlo zhi

Atoms # atomic

1 1 -3.3039999 -3.3039999 -3.3039999
2 1 -1.652 -1.652 -1.652
3 1 -3.3039999 -3.3039999 0.0
4 1 -1.652 -1.652 1.652
5 1 -3.3039999 -3.3039999 3.3039999
6 1 -1.652 -1.652 4.956
7 1 -3.3039999 -3.3039999 6.6079998
8 1 -1.652 -1.652 8.2600002
9 1 -3.3039999 0.0 -3.3039999
10 1 -1.652 1.652 -1.652
11 1 -3.3039999 0.0 0.0
12 1 -1.652 1.652 1.652
13 1 -3.3039999 0.0 3.3039999
14 1 -1.652 1.652 4.956
15 1 -3.3039999 0.0 6.6079998
16 1 -1.652 1.652 8.2600002
17 1 -3.3039999 3.3039999 -3.3039999
18 1 -1.652 4.956 -1.652
19 1 -3.3039999 3.3039999 0.0
20 1 -1.652 4.956 1.652
21 1 -3.3039999 3.3039999 3.3039999
22 1 -1.652 4.956 4.956
23 1 -3.3039999 3.3039999 6.6079998
24 1 -1.652 4.956 8.2600002
25 1 -3.3039999 6.6079998 -3.3039999
26 1 -1.652 8.2600002 -1.652
27 1 -3.3039999 6.6079998 0.0
28 1 -1.652 8.2600002 1.652
29 1 -3.3039999 6.6079998 3.3039999
30 1 -1.652 8.2600002 4.956
31 1 -3.3039999 6.6079998 6.6079998
32 1 -1.652 8.2600002 8.2600002
33 1 0.0 -3.3039999 -3.3039999
34 1 1.652 -1.652 -1.652
35 1 0.0 -3.3039999 0.0
36 1 1.652 -1.652 1.652
37 1 0.0 -3.3039999 3.3039999
38 1 1.652 -1.652 4.956
39 1 0.0 -3.3039999 6.6079998
40 1 1.652 -1.652 8.2600002
41 1 0.0 0.0 -3.3039999
42 1 1.652 1.652 -1.652
43 1 0.0 0.0 0.0
44 1 1.652 1.652 1.652
45 1 0.0 0.0 3.3039999
46 1 1.652 1.652 4.956
47 1 0.0 0.0 6.6079998
48 1 1.652 1.652 8.2600002
49 1 0.0 3.3039999 -3.3039999
50 1 1.652 4.956 -1.652
51 1 0.0 3.3039999 0.0
52 1 1.652 4.956 1.652
53 1 0.0 3.3039999 3.3039999
54 1 1.652 4.956 4.956
55 1 0.0 3.3039999 6.6079998
56 1 1.652 4.956 8.2600002
57 1 0.0 6.6079998 -3.3039999
58 1 1.652 8.2600002 -1.652
59 1 0.0 6.6079998 0.0
60 1 1.652 8.2600002 1.652
61 1 0.0 6.6079998 3.3039999
62 1 1.652 8.2600002 4.956
63 1 0.0 6.6079998 6.6079998
64 1 1.652 8.2600002 8.2600002
65 1 3.3039999 -3.3039999 -3.3039999
66 1 4.956 -1.652 -1.652
67 1 3.3039999 -3.3039999 0.0
68 1 4.956 -1.652 1.652
69 1 3.3039999 -3.3039999 3.3039999
70 1 4.956 -1.652 4.956
71 1 3.3039999 -3.3039999 6.6079998
72 1 4.956 -1.652 8.2600002
73 1 3.3039999 0.0 -3.3039999
74 1 4.956 1.652 -1.652
75 1 3.3039999 0.0 0.0
76 1 4.956 1.652 1.652
77 1 3.3039999 0.0 3.3039999
78 1 4.956 1.652 4.956
79 1 3.3039999 0.0 6.6079998
80 1 4.956 1.652 8.2600002
81 1 3.3039999 3.3039999 -3.3039999
82 1 4.956 4.956 -1.652
83 1 3.3039999 3.3039999 0.0
84 1 4.956 4.956 1.652
85 1 3.3039999 3.3039999 3.3039999
86 1 4.956 4.956 4.956
87 1 3.3039999 3.3039999 6.6079998
88 1 4.956 4.956 8.2600002
89 1 3.3039999 6.6079998 -3.3039999
90 1 4.956 8.2600002 -1.652
91 1 3.3039999 6.6079998 0.0
92 1 4.956 8.2600002 1.652
93 1 3.3039999 6.6079998 3.3039999
94 1 4.956 8.2600002 4.956
95 1 3.3039999 6.6079998 6.6079998
96 1 4.956 8.2600002 8.2600002
97 1 6.6079998 -3.3039999 -3.3039999
98 1 8.2600002 -1.652 -1.652
99 1 6.6079998 -3.3039999 0.0
100 1 8.2600002 -1.652 1.652
101 1 6.6079998 -3.3039999 3.3039999
102 1 8.2600002 -1.652 4.956
103 1 6.6079998 -3.3039999 6.6079998
104 1 8.2600002 -1.652 8.2600002
105 1 6.6079998 0.0 -3.3039999
106 1 8.2600002 1.652 -1.652
107 1 6.6079998 0.0 0.0
108 1 8.2600002 1.652 1.652
109 1 6.6079998 0.0 3.3039999
110 1 8.2600002 1.652 4.956
111 1 6.6079998 0.0 6.6079998
112 1 8.2600002 1.652 8.2600002
113 1 6.6079998 3.3039999 -3.3039999
114 1 8.2600002 4.956 -1.652
115 1 6.6079998 3.3039999 0.0
116 1 8.2600002 4.956 1.652
117 1 6.6079998 3.3039999 3.3039999
118 1 8.2600002 4.956 4.956
119 1 6.6079998 3.3039999 6.6079998
120 1 8.2600002 4.956 8.2600002
121 1 6.6079998 6.6079998 -3.3039999
122 1 8.2600002 8.2600002 -1.652
123 1 6.6079998 6.6079998 0.0
124 1 8.2600002 8.2600002 1.652
125 1 6.6079998 6.6079998 3.3039999
126 1 8.2600002 8.2600002 4.956
127 1 6.6079998 6.6079998 6.6079998
128 1 8.2600002 8.2600002 8.2600002
