# LAMMPS data file written by OVITO
431 atoms
1 atom types
-6.6079998 13.2159996 xlo xhi
-6.6079998 13.2159996 ylo yhi
-6.6079998 13.2159996 zlo zhi

Atoms # atomic

1 1 -6.6079998 -6.6079998 -6.6079998
2 1 -4.956 -4.956 -4.956
3 1 -6.6079998 -6.6079998 -3.3039999
4 1 -4.956 -4.956 -1.652
5 1 -6.6079998 -6.6079998 0.0
6 1 -4.956 -4.956 1.652
7 1 -6.6079998 -6.6079998 3.3039999
8 1 -4.956 -4.956 4.956
9 1 -6.6079998 -6.6079998 6.6079998
10 1 -4.956 -4.956 8.2600002
11 1 -6.6079998 -6.6079998 9.9119998
12 1 -4.956 -4.956 11.5639992
13 1 -6.6079998 -3.3039999 -6.6079998
14 1 -4.956 -1.652 -4.956
15 1 -6.6079998 -3.3039999 -3.3039999
16 1 -4.956 -1.652 -1.652
17 1 -6.6079998 -3.3039999 0.0
18 1 -4.956 -1.652 1.652
19 1 -6.6079998 -3.3039999 3.3039999
20 1 -4.956 -1.652 4.956
21 1 -6.6079998 -3.3039999 6.6079998
22 1 -4.956 -1.652 8.2600002
23 1 -6.6079998 -3.3039999 9.9119998
24 1 -4.956 -1.652 11.5639992
25 1 -6.6079998 0.0 -6.6079998
26 1 -4.956 1.652 -4.956
27 1 -6.6079998 0.0 -3.3039999
28 1 -4.956 1.652 -1.652
29 1 -6.6079998 0.0 0.0
30 1 -4.956 1.652 1.652
31 1 -6.6079998 0.0 3.3039999
32 1 -4.956 1.652 4.956
33 1 -6.6079998 0.0 6.6079998
34 1 -4.956 1.652 8.2600002
35 1 -6.6079998 0.0 9.9119998
36 1 -4.956 1.652 11.5639992
37 1 -6.6079998 3.3039999 -6.6079998
38 1 -4.956 4.956 -4.956
39 1 -6.6079998 3.3039999 -3.3039999
40 1 -4.956 4.956 -1.652
41 1 -6.6079998 3.3039999 0.0
42 1 -4.956 4.956 1.652
43 1 -6.6079998 3.3039999 3.3039999
44 1 -4.956 4.956 4.956
45 1 -6.6079998 3.3039999 6.6079998
46 1 -4.956 4.956 8.2600002
47 1 -6.6079998 3.3039999 9.9119998
48 1 -4.956 4.956 11.5639992
49 1 -6.6079998 6.6079998 -6.6079998
50 1 -4.956 8.2600002 -4.956
51 1 -6.6079998 6.6079998 -3.3039999
52 1 -4.956 8.2600002 -1.652
53 1 -6.6079998 6.6079998 0.0
54 1 -4.956 8.2600002 1.652
55 1 -6.6079998 6.6079998 3.3039999
56 1 -4.956 8.2600002 4.956
57 1 -6.6079998 6.6079998 6.6079998
58 1 -4.956 8.2600002 8.2600002
59 1 -6.6079998 6.6079998 9.9119998
60 1 -4.956 8.2600002 11.5639992
61 1 -6.6079998 9.9119998 -6.6079998
62 1 -4.956 11.5639992 -4.956
63 1 -6.6079998 9.9119998 -3.3039999
64 1 -4.956 11.5639992 -1.652
65 1 -6.6079998 9.9119998 0.0
66 1 -4.956 11.5639992 1.652
67 1 -6.6079998 9.9119998 3.3039999
68 1 -4.956 11.5639992 4.956
69 1 -6.6079998 9.9119998 6.6079998
70 1 -4.956 11.5639992 8.2600002
71 1 -6.6079998 9.9119998 9.9119998
72 1 -4.956 11.5639992 11.5639992
73 1 -3.3039999 -6.6079998 -6.6079998
74 1 -1.652 -4.956 -4.956
75 1 -3.3039999 -6.6079998 -3.3039999
76 1 -1.652 -4.956 -1.652
77 1 -3.3039999 -6.6079998 0.0
78 1 -1.652 -4.956 1.652
79 1 -3.3039999 -6.6079998 3.3039999
80 1 -1.652 -4.956 4.956
81 1 -3.3039999 -6.6079998 6.6079998
82 1 -1.652 -4.956 8.2600002
83 1 -3.3039999 -6.6079998 9.9119998
84 1 -1.652 -4.956 11.5639992
85 1 -3.3039999 -3.3039999 -6.6079998
86 1 -1.652 -1.652 -4.956
87 1 -3.3039999 -3.3039999 -3.3039999
88 1 -1.652 -1.652 -1.652
89 1 -3.3039999 -3.3039999 0.0
90 1 -1.652 -1.652 1.652
91 1 -3.3039999 -3.3039999 3.3039999
92 1 -1.652 -1.652 4.956
93 1 -3.3039999 -3.3039999 6.6079998
94 1 -1.652 -1.652 8.2600002
95 1 -3.3039999 -3.3039999 9.9119998
96 1 -1.652 -1.652 11.5639992
97 1 -3.3039999 0.0 -6.6079998
98 1 -1.652 1.652 -4.956
99 1 -3.3039999 0.0 -3.3039999
100 1 -1.652 1.652 -1.652
101 1 -3.3039999 0.0 0.0
102 1 -1.652 1.652 1.652
103 1 -3.3039999 0.0 3.3039999
104 1 -1.652 1.652 4.956
105 1 -3.3039999 0.0 6.6079998
106 1 -1.652 1.652 8.2600002
107 1 -3.3039999 0.0 9.9119998
108 1 -1.652 1.652 11.5639992
109 1 -3.3039999 3.3039999 -6.6079998
110 1 -1.652 4.956 -4.956
111 1 -3.3039999 3.3039999 -3.3039999
112 1 -1.652 4.956 -1.652
113 1 -3.3039999 3.3039999 0.0
114 1 -1.652 4.956 1.652
115 1 -3.3039999 3.3039999 3.3039999
116 1 -1.652 4.956 4.956
117 1 -3.3039999 3.3039999 6.6079998
118 1 -1.652 4.956 8.2600002
119 1 -3.3039999 3.3039999 9.9119998
120 1 -1.652 4.956 11.5639992
121 1 -3.3039999 6.6079998 -6.6079998
122 1 -1.652 8.2600002 -4.956
123 1 -3.3039999 6.6079998 -3.3039999
124 1 -1.652 8.2600002 -1.652
125 1 -3.3039999 6.6079998 0.0
126 1 -1.652 8.2600002 1.652
127 1 -3.3039999 6.6079998 3.3039999
128 1 -1.652 8.2600002 4.956
129 1 -3.3039999 6.6079998 6.6079998
130 1 -1.652 8.2600002 8.2600002
131 1 -3.3039999 6.6079998 9.9119998
132 1 -1.652 8.2600002 11.5639992
133 1 -3.3039999 9.9119998 -6.6079998
134 1 -1.652 11.5639992 -4.956
135 1 -3.3039999 9.9119998 -3.3039999
136 1 -1.652 11.5639992 -1.652
137 1 -3.3039999 9.9119998 0.0
138 1 -1.652 11.5639992 1.652
139 1 -3.3039999 9.9119998 3.3039999
140 1 -1.652 11.5639992 4.956
141 1 -3.3039999 9.9119998 6.6079998
142 1 -1.652 11.5639992 8.2600002
143 1 -3.3039999 9.9119998 9.9119998
144 1 -1.652 11.5639992 11.5639992
145 1 0.0 -6.6079998 -6.6079998
146 1 1.652 -4.956 -4.956
147 1 0.0 -6.6079998 -3.3039999
148 1 1.652 -4.956 -1.652
149 1 0.0 -6.6079998 0.0
150 1 1.652 -4.956 1.652
151 1 0.0 -6.6079998 3.3039999
152 1 1.652 -4.956 4.956
153 1 0.0 -6.6079998 6.6079998
154 1 1.652 -4.956 8.2600002
155 1 0.0 -6.6079998 9.9119998
156 1 1.652 -4.956 11.5639992
157 1 0.0 -3.3039999 -6.6079998
158 1 1.652 -1.652 -4.956
159 1 0.0 -3.3039999 -3.3039999
160 1 1.652 -1.652 -1.652
161 1 0.0 -3.3039999 0.0
162 1 1.652 -1.652 1.652
163 1 0.0 -3.3039999 3.3039999
164 1 1.652 -1.652 4.956
165 1 0.0 -3.3039999 6.6079998
166 1 1.652 -1.652 8.2600002
167 1 0.0 -3.3039999 9.9119998
168 1 1.652 -1.652 11.5639992
169 1 0.0 0.0 -6.6079998
170 1 1.652 1.652 -4.956
171 1 0.0 0.0 -3.3039999
172 1 1.652 1.652 -1.652
173 1 0.0 0.0 0.0
174 1 1.652 1.652 1.652
175 1 0.0 0.0 3.3039999
176 1 1.652 1.652 4.956
177 1 0.0 0.0 6.6079998
178 1 1.652 1.652 8.2600002
179 1 0.0 0.0 9.9119998
180 1 1.652 1.652 11.5639992
181 1 0.0 3.3039999 -6.6079998
182 1 1.652 4.956 -4.956
183 1 0.0 3.3039999 -3.3039999
184 1 1.652 4.956 -1.652
185 1 0.0 3.3039999 0.0
186 1 1.652 4.956 1.652
187 1 0.0 3.3039999 3.3039999
188 1 1.652 4.956 4.956
189 1 0.0 3.3039999 6.6079998
190 1 1.652 4.956 8.2600002
191 1 0.0 3.3039999 9.9119998
192 1 1.652 4.956 11.5639992
193 1 0.0 6.6079998 -6.6079998
194 1 1.652 8.2600002 -4.956
195 1 0.0 6.6079998 -3.3039999
196 1 1.652 8.2600002 -1.652
197 1 0.0 6.6079998 0.0
198 1 1.652 8.2600002 1.652
199 1 0.0 6.6079998 3.3039999
200 1 1.652 8.2600002 4.956
201 1 0.0 6.6079998 6.6079998
202 1 1.652 8.2600002 8.2600002
203 1 0.0 6.6079998 9.9119998
204 1 1.652 8.2600002 11.5639992
205 1 0.0 9.9119998 -6.6079998
206 1 1.652 11.5639992 -4.956
207 1 0.0 9.9119998 -3.3039999
208 1 1.652 11.5639992 -1.652
209 1 0.0 9.9119998 0.0
210 1 1.652 11.5639992 1.652
211 1 0.0 9.9119998 3.3039999
212 1 1.652 11.5639992 4.956
213 1 0.0 9.9119998 6.6079998
214 1 1.652 11.5639992 8.2600002
215 1 0.0 9.9119998 9.9119998
216 1 1.652 11.5639992 11.5639992
217 1 3.3039999 -6.6079998 -6.6079998
218 1 4.956 -4.956 -4.956
219 1 3.3039999 -6.6079998 -3.3039999
220 1 4.956 -4.956 -1.652
221 1 3.3039999 -6.6079998 0.0
222 1 4.956 -4.956 1.652
223 1 3.3039999 -6.6079998 3.3039999
224 1 4.956 -4.956 4.956
225 1 3.3039999 -6.6079998 6.6079998
226 1 4.956 -4.956 8.2600002
227 1 3.3039999 -6.6079998 9.9119998
228 1 4.956 -4.956 11.5639992
229 1 3.3039999 -3.3039999 -6.6079998
230 1 4.956 -1.652 -4.956
231 1 3.3039999 -3.3039999 -3.3039999
232 1 4.956 -1.652 -1.652
233 1 3.3039999 -3.3039999 0.0
234 1 4.956 -1.652 1.652
235 1 3.3039999 -3.3039999 3.3039999
236 1 4.956 -1.652 4.956
237 1 3.3039999 -3.3039999 6.6079998
238 1 4.956 -1.652 8.2600002
239 1 3.3039999 -3.3039999 9.9119998
240 1 4.956 -1.652 11.5639992
241 1 3.3039999 0.0 -6.6079998
242 1 4.956 1.652 -4.956
243 1 3.3039999 0.0 -3.3039999
244 1 4.956 1.652 -1.652
245 1 3.3039999 0.0 0.0
246 1 4.956 1.652 1.652
247 1 3.3039999 0.0 3.3039999
248 1 4.956 1.652 4.956
249 1 3.3039999 0.0 6.6079998
250 1 4.956 1.652 8.2600002
251 1 3.3039999 0.0 9.9119998
252 1 4.956 1.652 11.5639992
253 1 3.3039999 3.3039999 -6.6079998
254 1 4.956 4.956 -4.956
255 1 3.3039999 3.3039999 -3.3039999
257 1 3.3039999 3.3039999 0.0
258 1 4.956 4.956 1.652
259 1 3.3039999 3.3039999 3.3039999
260 1 4.956 4.956 4.956
261 1 3.3039999 3.3039999 6.6079998
262 1 4.956 4.956 8.2600002
263 1 3.3039999 3.3039999 9.9119998
264 1 4.956 4.956 11.5639992
265 1 3.3039999 6.6079998 -6.6079998
266 1 4.956 8.2600002 -4.956
267 1 3.3039999 6.6079998 -3.3039999
268 1 4.956 8.2600002 -1.652
269 1 3.3039999 6.6079998 0.0
270 1 4.956 8.2600002 1.652
271 1 3.3039999 6.6079998 3.3039999
272 1 4.956 8.2600002 4.956
273 1 3.3039999 6.6079998 6.6079998
274 1 4.956 8.2600002 8.2600002
275 1 3.3039999 6.6079998 9.9119998
276 1 4.956 8.2600002 11.5639992
277 1 3.3039999 9.9119998 -6.6079998
278 1 4.956 11.5639992 -4.956
279 1 3.3039999 9.9119998 -3.3039999
280 1 4.956 11.5639992 -1.652
281 1 3.3039999 9.9119998 0.0
282 1 4.956 11.5639992 1.652
283 1 3.3039999 9.9119998 3.3039999
284 1 4.956 11.5639992 4.956
285 1 3.3039999 9.9119998 6.6079998
286 1 4.956 11.5639992 8.2600002
287 1 3.3039999 9.9119998 9.9119998
288 1 4.956 11.5639992 11.5639992
289 1 6.6079998 -6.6079998 -6.6079998
290 1 8.2600002 -4.956 -4.956
291 1 6.6079998 -6.6079998 -3.3039999
292 1 8.2600002 -4.956 -1.652
293 1 6.6079998 -6.6079998 0.0
294 1 8.2600002 -4.956 1.652
295 1 6.6079998 -6.6079998 3.3039999
296 1 8.2600002 -4.956 4.956
297 1 6.6079998 -6.6079998 6.6079998
298 1 8.2600002 -4.956 8.2600002
299 1 6.6079998 -6.6079998 9.9119998
300 1 8.2600002 -4.956 11.5639992
301 1 6.6079998 -3.3039999 -6.6079998
302 1 8.2600002 -1.652 -4.956
303 1 6.6079998 -3.3039999 -3.3039999
304 1 8.2600002 -1.652 -1.652
305 1 6.6079998 -3.3039999 0.0
306 1 8.2600002 -1.652 1.652
307 1 6.6079998 -3.3039999 3.3039999
308 1 8.2600002 -1.652 4.956
309 1 6.6079998 -3.3039999 6.6079998
310 1 8.2600002 -1.652 8.2600002
311 1 6.6079998 -3.3039999 9.9119998
312 1 8.2600002 -1.652 11.5639992
313 1 6.6079998 0.0 -6.6079998
314 1 8.2600002 1.652 -4.956
315 1 6.6079998 0.0 -3.3039999
316 1 8.2600002 1.652 -1.652
317 1 6.6079998 0.0 0.0
318 1 8.2600002 1.652 1.652
319 1 6.6079998 0.0 3.3039999
320 1 8.2600002 1.652 4.956
321 1 6.6079998 0.0 6.6079998
322 1 8.2600002 1.652 8.2600002
323 1 6.6079998 0.0 9.9119998
324 1 8.2600002 1.652 11.5639992
325 1 6.6079998 3.3039999 -6.6079998
326 1 8.2600002 4.956 -4.956
327 1 6.6079998 3.3039999 -3.3039999
328 1 8.2600002 4.956 -1.652
329 1 6.6079998 3.3039999 0.0
330 1 8.2600002 4.956 1.652
331 1 6.6079998 3.3039999 3.3039999
332 1 8.2600002 4.956 4.956
333 1 6.6079998 3.3039999 6.6079998
334 1 8.2600002 4.956 8.2600002
335 1 6.6079998 3.3039999 9.9119998
336 1 8.2600002 4.956 11.5639992
337 1 6.6079998 6.6079998 -6.6079998
338 1 8.2600002 8.2600002 -4.956
339 1 6.6079998 6.6079998 -3.3039999
340 1 8.2600002 8.2600002 -1.652
341 1 6.6079998 6.6079998 0.0
342 1 8.2600002 8.2600002 1.652
343 1 6.6079998 6.6079998 3.3039999
344 1 8.2600002 8.2600002 4.956
345 1 6.6079998 6.6079998 6.6079998
346 1 8.2600002 8.2600002 8.2600002
347 1 6.6079998 6.6079998 9.9119998
348 1 8.2600002 8.2600002 11.5639992
349 1 6.6079998 9.9119998 -6.6079998
350 1 8.2600002 11.5639992 -4.956
351 1 6.6079998 9.9119998 -3.3039999
352 1 8.2600002 11.5639992 -1.652
353 1 6.6079998 9.9119998 0.0
354 1 8.2600002 11.5639992 1.652
355 1 6.6079998 9.9119998 3.3039999
356 1 8.2600002 11.5639992 4.956
357 1 6.6079998 9.9119998 6.6079998
358 1 8.2600002 11.5639992 8.2600002
359 1 6.6079998 9.9119998 9.9119998
360 1 8.2600002 11.5639992 11.5639992
361 1 9.9119998 -6.6079998 -6.6079998
362 1 11.5639992 -4.956 -4.956
363 1 9.9119998 -6.6079998 -3.3039999
364 1 11.5639992 -4.956 -1.652
365 1 9.9119998 -6.6079998 0.0
366 1 11.5639992 -4.956 1.652
367 1 9.9119998 -6.6079998 3.3039999
368 1 11.5639992 -4.956 4.956
369 1 9.9119998 -6.6079998 6.6079998
370 1 11.5639992 -4.956 8.2600002
371 1 9.9119998 -6.6079998 9.9119998
372 1 11.5639992 -4.956 11.5639992
373 1 9.9119998 -3.3039999 -6.6079998
374 1 11.5639992 -1.652 -4.956
375 1 9.9119998 -3.3039999 -3.3039999
376 1 11.5639992 -1.652 -1.652
377 1 9.9119998 -3.3039999 0.0
378 1 11.5639992 -1.652 1.652
379 1 9.9119998 -3.3039999 3.3039999
380 1 11.5639992 -1.652 4.956
381 1 9.9119998 -3.3039999 6.6079998
382 1 11.5639992 -1.652 8.2600002
383 1 9.9119998 -3.3039999 9.9119998
384 1 11.5639992 -1.652 11.5639992
385 1 9.9119998 0.0 -6.6079998
386 1 11.5639992 1.652 -4.956
387 1 9.9119998 0.0 -3.3039999
388 1 11.5639992 1.652 -1.652
389 1 9.9119998 0.0 0.0
390 1 11.5639992 1.652 1.652
391 1 9.9119998 0.0 3.3039999
392 1 11.5639992 1.652 4.956
393 1 9.9119998 0.0 6.6079998
394 1 11.5639992 1.652 8.2600002
395 1 9.9119998 0.0 9.9119998
396 1 11.5639992 1.652 11.5639992
397 1 9.9119998 3.3039999 -6.6079998
398 1 11.5639992 4.956 -4.956
399 1 9.9119998 3.3039999 -3.3039999
400 1 11.5639992 4.956 -1.652
401 1 9.9119998 3.3039999 0.0
402 1 11.5639992 4.956 1.652
403 1 9.9119998 3.3039999 3.3039999
404 1 11.5639992 4.956 4.956
405 1 9.9119998 3.3039999 6.6079998
406 1 11.5639992 4.956 8.2600002
407 1 9.9119998 3.3039999 9.9119998
408 1 11.5639992 4.956 11.5639992
409 1 9.9119998 6.6079998 -6.6079998
410 1 11.5639992 8.2600002 -4.956
411 1 9.9119998 6.6079998 -3.3039999
412 1 11.5639992 8.2600002 -1.652
413 1 9.9119998 6.6079998 0.0
414 1 11.5639992 8.2600002 1.652
415 1 9.9119998 6.6079998 3.3039999
416 1 11.5639992 8.2600002 4.956
417 1 9.9119998 6.6079998 6.6079998
418 1 11.5639992 8.2600002 8.2600002
419 1 9.9119998 6.6079998 9.9119998
420 1 11.5639992 8.2600002 11.5639992
421 1 9.9119998 9.9119998 -6.6079998
422 1 11.5639992 11.5639992 -4.956
423 1 9.9119998 9.9119998 -3.3039999
424 1 11.5639992 11.5639992 -1.652
425 1 9.9119998 9.9119998 0.0
426 1 11.5639992 11.5639992 1.652
427 1 9.9119998 9.9119998 3.3039999
428 1 11.5639992 11.5639992 4.956
429 1 9.9119998 9.9119998 6.6079998
430 1 11.5639992 11.5639992 8.2600002
431 1 9.9119998 9.9119998 9.9119998
432 1 11.5639992 11.5639992 11.5639992
